<?xml version="1.0"?>

<!-- generated on Di 04 Dez 2012 13:57:02 CET by SUMO gui Version 0.16.0
<?xml version="1.0" encoding="UTF-8"?>

<configuration xmlns:xsi="http://www.w3.org/2001/XMLSchema-instance" xsi:noNamespaceSchemaLocation="http://sumo.sf.net/xsd/sumo-gui.exeConfiguration.xsd">

    <input>
        <net-file value="/home/gladk/pk/sumo/mod1/sumo-0.16.0~dfsg/docs/examples/sumo/vehicle_stops/net.net.xml"/>
        <route-files value="/home/gladk/pk/sumo/mod1/sumo-0.16.0~dfsg/docs/examples/sumo/vehicle_stops/input_routes.rou.xml"/>
    </input>

    <output>
        <vehroute-output value="/home/gladk/pk/sumo/mod1/sumo-0.16.0~dfsg/docs/examples/sumo/vehicle_stops/vehroutes.xml"/>
    </output>

    <report>
        <no-duration-log value="true"/>
        <no-step-log value="true"/>
    </report>

</configuration>
-->

<routes>
</routes>
